polystyrene 10 x DP 8 (CAPS sample)
 1300
    1STY     C1    1   2.007   0.099   3.042
    1STY     C2    2   1.864   0.121   3.091
    2STY     C3    3   1.767   0.164   2.981
    2STY     C4    4   1.786   0.309   2.934
    3STY     C5    5   1.682   0.356   2.832
    3STY     C6    6   1.698   0.502   2.789
    4STY     C7    7   1.585   0.554   2.701
    4STY     C8    8   1.604   0.698   2.653
    5STY     C9    9   1.484   0.755   2.577
    5STY    C10   10   1.510   0.892   2.514
    6STY    C11   11   1.387   0.952   2.445
    6STY    C12   12   1.410   1.093   2.390
    7STY    C13   13   1.283   1.161   2.337
    7STY    C14   14   1.235   1.105   2.203
    8STY    C15   15   1.100   1.160   2.158
    8STY    C16   16   1.036   1.083   2.042
    1STY    H17   17   2.006   0.021   2.966
    1STY    H18   18   2.044   0.192   2.999
    1STY    C19   19   1.813  -0.008   3.150
    1STY    C20   20   1.756  -0.104   3.068
    1STY    C21   21   1.709  -0.223   3.123
    1STY    C22   22   1.720  -0.246   3.260
    1STY    C23   23   1.778  -0.150   3.342
    1STY    C24   24   1.824  -0.031   3.287
    1STY    H25   25   1.747  -0.087   2.962
    1STY    H26   26   1.664  -0.298   3.059
    1STY    H27   27   1.684  -0.339   3.302
    1STY    H28   28   1.786  -0.167   3.448
    1STY    H29   29   1.869   0.044   3.351
    1STY    H30   30   1.866   0.199   3.167
    2STY    H31   31   1.665   0.154   3.019
    2STY    H32   32   1.781   0.099   2.895
    2STY    C33   33   1.778   0.399   3.055
    2STY    C34   34   1.661   0.405   3.130
    2STY    C35   35   1.654   0.488   3.241
    2STY    C36   36   1.763   0.565   3.277
    2STY    C37   37   1.881   0.559   3.203
    2STY    C38   38   1.888   0.476   3.091
    2STY    H39   39   1.576   0.345   3.101
    2STY    H40   40   1.563   0.493   3.299
    2STY    H41   41   1.758   0.630   3.364
    2STY    H42   42   1.966   0.619   3.231
    2STY    H43   43   1.979   0.472   3.033
    2STY    H44   44   1.885   0.317   2.888
    3STY    H45   45   1.583   0.344   2.877
    3STY    H46   46   1.690   0.293   2.744
    3STY    C47   47   1.828   0.514   2.712
    3STY    C48   48   1.848   0.438   2.598
    3STY    C49   49   1.967   0.449   2.527
    3STY    C50   50   2.066   0.537   2.571
    3STY    C51   51   2.045   0.613   2.685
    3STY    C52   52   1.926   0.602   2.756
    3STY    H53   53   1.772   0.370   2.564
    3STY    H54   54   1.983   0.390   2.438
    3STY    H55   55   2.158   0.546   2.516
    3STY    H56   56   2.122   0.682   2.719
    3STY    H57   57   1.910   0.661   2.845
    3STY    H58   58   1.703   0.563   2.879
    4STY    H59   59   1.492   0.549   2.758
    4STY    H60   60   1.578   0.489   2.613
    4STY    C61   61   1.629   0.785   2.774
    4STY    C62   62   1.536   0.788   2.877
    4STY    C63   63   1.558   0.868   2.989
    4STY    C64   64   1.674   0.945   2.997
    4STY    C65   65   1.767   0.941   2.894
    4STY    C66   66   1.744   0.861   2.782
    4STY    H67   67   1.446   0.729   2.871
    4STY    H68   68   1.486   0.871   3.069
    4STY    H69   69   1.692   1.007   3.083
    4STY    H70   70   1.857   1.001   2.900
    4STY    H71   71   1.817   0.858   2.702
    4STY    H72   72   1.691   0.701   2.587
    5STY    H73   73   1.401   0.764   2.647
    5STY    H74   74   1.458   0.685   2.497
    5STY    C75   75   1.619   0.877   2.411
    5STY    C76   76   1.595   0.806   2.294
    5STY    C77   77   1.696   0.792   2.199
    5STY    C78   78   1.821   0.849   2.222
    5STY    C79   79   1.845   0.920   2.339
    5STY    C80   80   1.744   0.934   2.434
    5STY    H81   81   1.498   0.762   2.276
    5STY    H82   82   1.678   0.737   2.108
    5STY    H83   83   1.899   0.839   2.148
    5STY    H84   84   1.942   0.964   2.357
    5STY    H85   85   1.762   0.989   2.525
    5STY    H86   86   1.542   0.960   2.593
    6STY    H87   87   1.306   0.956   2.517
    6STY    H88   88   1.359   0.888   2.362
    6STY    C89   89   1.466   1.179   2.502
    6STY    C90   90   1.382   1.224   2.603
    6STY    C91   91   1.433   1.302   2.706
    6STY    C92   92   1.568   1.336   2.707
    6STY    C93   93   1.652   1.291   2.605
    6STY    C94   94   1.600   1.212   2.503
    6STY    H95   95   1.277   1.197   2.603
    6STY    H96   96   1.368   1.337   2.785
    6STY    H97   97   1.608   1.397   2.787
    6STY    H98   98   1.756   1.317   2.606
    6STY    H99   99   1.665   1.178   2.424
    6STY     H1  100   1.482   1.087   2.309
    7STY     H2  101   1.304   1.267   2.325
    7STY     H3  102   1.204   1.147   2.410
    7STY     C4  103   1.338   1.140   2.098
    7STY     C5  104   1.399   1.039   2.025
    7STY     C6  105   1.494   1.071   1.928
    7STY     C7  106   1.527   1.204   1.904
    7STY     C8  107   1.465   1.305   1.977
    7STY     C9  108   1.371   1.273   2.074
    7STY    H10  109   1.373   0.936   2.043
    7STY    H11  110   1.541   0.992   1.871
    7STY    H12  111   1.600   1.228   1.829
    7STY    H13  112   1.491   1.408   1.959
    7STY    H14  113   1.323   1.351   2.131
    7STY    H15  114   1.227   0.997   2.212
    8STY    H16  115   1.114   1.264   2.126
    8STY    H17  116   1.031   1.157   2.243
    8STY    C18  117   1.024   0.938   2.083
    8STY    C19  118   1.113   0.844   2.033
    8STY    C20  119   1.102   0.711   2.071
    8STY    C21  120   1.002   0.671   2.159
    8STY    C22  121   0.913   0.766   2.209
    8STY    C23  122   0.924   0.899   2.171
    8STY    H24  123   1.191   0.874   1.965
    8STY    H25  124   1.171   0.637   2.032
    8STY    H26  125   0.993   0.568   2.188
    8STY    H27  126   0.835   0.735   2.277
    8STY    H28  127   0.855   0.972   2.210
    8STY    H29  128   1.102   1.091   1.955
    1STY    H30  129   2.076   0.068   3.121
    8STY    H31  130   0.937   1.119   2.014
    9STY     C1  131   0.817  -0.586   1.745
    9STY     C2  132   0.763  -0.599   1.603
   10STY     C3  133   0.736  -0.465   1.534
   10STY     C4  134   0.710  -0.476   1.384
   11STY     C5  135   0.658  -0.347   1.320
   11STY     C6  136   0.746  -0.225   1.347
   12STY     C7  137   0.716  -0.105   1.256
   12STY     C8  138   0.788   0.024   1.297
   13STY     C9  139   0.781   0.134   1.192
   13STY    C10  140   0.832   0.270   1.241
   14STY    C11  141   0.820   0.382   1.138
   14STY    C12  142   0.676   0.429   1.114
   15STY    C13  143   0.662   0.536   1.005
   15STY    C14  144   0.685   0.482   0.863
   16STY    C15  145   0.663   0.587   0.754
   16STY    C16  146   0.775   0.691   0.744
    9STY    H17  147   0.910  -0.530   1.742
    9STY    H18  148   0.744  -0.531   1.805
    9STY    C19  149   0.864  -0.675   1.521
    9STY    C20  150   0.966  -0.607   1.456
    9STY    C21  151   1.059  -0.677   1.380
    9STY    C22  152   1.050  -0.816   1.369
    9STY    C23  153   0.948  -0.884   1.434
    9STY    C24  154   0.854  -0.813   1.510
    9STY    H25  155   0.973  -0.500   1.464
    9STY    H26  156   1.139  -0.624   1.330
    9STY    H27  157   1.122  -0.870   1.311
    9STY    H28  158   0.940  -0.991   1.426
    9STY    H29  159   0.775  -0.866   1.560
    9STY    H30  160   0.669  -0.654   1.607
   10STY    H31  161   0.823  -0.401   1.549
   10STY    H32  162   0.649  -0.419   1.580
   10STY    C33  163   0.607  -0.584   1.362
   10STY    C34  164   0.625  -0.678   1.260
   10STY    C35  165   0.530  -0.778   1.240
   10STY    C36  166   0.417  -0.784   1.321
   10STY    C37  167   0.399  -0.690   1.422
   10STY    C38  168   0.494  -0.590   1.443
   10STY    H39  169   0.713  -0.673   1.198
   10STY    H40  170   0.544  -0.850   1.162
   10STY    H41  171   0.344  -0.861   1.305
   10STY    H42  172   0.312  -0.695   1.485
   10STY    H43  173   0.480  -0.518   1.521
   10STY    H44  174   0.803  -0.504   1.335
   11STY    H45  175   0.559  -0.327   1.359
   11STY    H46  176   0.653  -0.362   1.212
   11STY    C47  177   0.890  -0.264   1.326
   11STY    C48  178   0.929  -0.325   1.207
   11STY    C49  179   1.062  -0.361   1.187
   11STY    C50  180   1.156  -0.337   1.287
   11STY    C51  181   1.117  -0.277   1.406
   11STY    C52  182   0.984  -0.240   1.425
   11STY    H53  183   0.856  -0.343   1.129
   11STY    H54  184   1.092  -0.408   1.095
   11STY    H55  185   1.259  -0.366   1.272
   11STY    H56  186   1.190  -0.258   1.483
   11STY    H57  187   0.954  -0.193   1.518
   11STY    H58  188   0.731  -0.194   1.450
   12STY    H59  189   0.608  -0.086   1.259
   12STY    H60  190   0.746  -0.131   1.155
   12STY    C61  191   0.725   0.075   1.424
   12STY    C62  192   0.796   0.072   1.543
   12STY    C63  193   0.738   0.120   1.660
   12STY    C64  194   0.608   0.170   1.658
   12STY    C65  195   0.537   0.173   1.539
   12STY    C66  196   0.595   0.125   1.422
   12STY    H67  197   0.897   0.033   1.545
   12STY    H68  198   0.793   0.118   1.753
   12STY    H69  199   0.563   0.207   1.749
   12STY    H70  200   0.436   0.212   1.537
   12STY    H71  201   0.540   0.127   1.329
   12STY    H72  202   0.893  -0.000   1.315
   13STY    H73  203   0.678   0.146   1.161
   13STY    H74  204   0.842   0.104   1.106
   13STY    C75  205   0.978   0.255   1.277
   13STY    C76  206   1.071   0.218   1.180
   13STY    C77  207   1.205   0.205   1.214
   13STY    C78  208   1.247   0.228   1.344
   13STY    C79  209   1.154   0.265   1.441
   13STY    C80  210   1.020   0.279   1.408
   13STY    H81  211   1.038   0.200   1.079
   13STY    H82  212   1.277   0.176   1.138
   13STY    H83  213   1.351   0.218   1.370
   13STY    H84  214   1.187   0.283   1.542
   13STY    H85  215   0.948   0.308   1.483
   13STY    H86  216   0.775   0.298   1.329
   14STY    H87  217   0.860   0.347   1.043
   14STY    H88  218   0.878   0.468   1.173
   14STY    C89  219   0.623   0.487   1.243
   14STY    C90  220   0.668   0.611   1.288
   14STY    C91  221   0.620   0.664   1.407
   14STY    C92  222   0.526   0.593   1.481
   14STY    C93  223   0.481   0.469   1.437
   14STY    C94  224   0.530   0.416   1.318
   14STY    H95  225   0.741   0.666   1.230
   14STY    H96  226   0.655   0.760   1.441
   14STY    H97  227   0.488   0.634   1.573
   14STY    H98  228   0.408   0.414   1.495
   14STY    H99  229   0.495   0.320   1.283
   14STY     H1  230   0.616   0.343   1.085
   15STY     H2  231   0.736   0.614   1.024
   15STY     H3  232   0.562   0.577   1.010
   15STY     C4  233   0.588   0.369   0.840
   15STY     C5  234   0.629   0.238   0.863
   15STY     C6  235   0.540   0.133   0.841
   15STY     C7  236   0.411   0.159   0.796
   15STY     C8  237   0.371   0.290   0.773
   15STY     C9  238   0.459   0.395   0.795
   15STY    H10  239   0.729   0.217   0.898
   15STY    H11  240   0.571   0.031   0.859
   15STY    H12  241   0.342   0.078   0.780
   15STY    H13  242   0.271   0.310   0.738
   15STY    H14  243   0.428   0.497   0.777
   15STY    H15  244   0.787   0.446   0.856
   16STY    H16  245   0.570   0.639   0.774
   16STY    H17  246   0.656   0.535   0.658
   16STY    C18  247   0.901   0.621   0.698
   16STY    C19  248   0.926   0.606   0.562
   16STY    C20  249   1.042   0.541   0.520
   16STY    C21  250   1.132   0.492   0.614
   16STY    C22  251   1.107   0.508   0.750
   16STY    C23  252   0.991   0.572   0.792
   16STY    H24  253   0.856   0.644   0.490
   16STY    H25  254   1.062   0.529   0.415
   16STY    H26  255   1.222   0.442   0.581
   16STY    H27  256   1.177   0.470   0.822
   16STY    H28  257   0.971   0.584   0.897
   16STY    H29  258   0.790   0.734   0.843
    9STY    H30  259   0.835  -0.681   1.795
   16STY    H31  260   0.754   0.772   0.674
   17STY     C1  261   0.590   0.064  -0.318
   17STY     C2  262   0.523   0.182  -0.247
   18STY     C3  263   0.617   0.264  -0.159
   18STY     C4  264   0.559   0.398  -0.112
   19STY     C5  265   0.654   0.481  -0.027
   19STY     C6  266   0.598   0.617   0.014
   20STY     C7  267   0.700   0.708   0.083
   20STY     C8  268   0.781   0.639   0.193
   21STY     C9  269   0.871   0.733   0.273
   21STY    C10  270   0.972   0.810   0.187
   22STY    C11  271   1.079   0.884   0.267
   22STY    C12  272   1.024   0.981   0.371
   23STY    C13  273   1.130   1.066   0.440
   23STY    C14  274   1.073   1.179   0.526
   24STY    C15  275   1.179   1.257   0.604
   24STY    C16  276   1.289   1.318   0.517
   17STY    H17  277   0.670   0.104  -0.381
   17STY    H18  278   0.633  -0.002  -0.242
   17STY    C19  279   0.464   0.273  -0.352
   17STY    C20  280   0.548   0.339  -0.441
   17STY    C21  281   0.494   0.424  -0.538
   17STY    C22  282   0.357   0.441  -0.545
   17STY    C23  283   0.273   0.375  -0.456
   17STY    C24  284   0.327   0.291  -0.360
   17STY    H25  285   0.655   0.326  -0.435
   17STY    H26  286   0.560   0.475  -0.607
   17STY    H27  287   0.315   0.507  -0.620
   17STY    H28  288   0.166   0.389  -0.462
   17STY    H29  289   0.262   0.240  -0.290
   17STY    H30  290   0.443   0.143  -0.184
   18STY    H31  291   0.708   0.285  -0.216
   18STY    H32  292   0.642   0.205  -0.071
   18STY    C33  293   0.435   0.369  -0.031
   18STY    C34  294   0.311   0.412  -0.077
   18STY    C35  295   0.196   0.386  -0.002
   18STY    C36  296   0.206   0.317   0.118
   18STY    C37  297   0.330   0.273   0.163
   18STY    C38  298   0.445   0.300   0.089
   18STY    H39  299   0.303   0.466  -0.170
   18STY    H40  300   0.100   0.420  -0.037
   18STY    H41  301   0.118   0.296   0.176
   18STY    H42  302   0.338   0.219   0.257
   18STY    H43  303   0.541   0.266   0.124
   18STY    H44  304   0.533   0.456  -0.201
   19STY    H45  305   0.746   0.497  -0.083
   19STY    H46  306   0.677   0.425   0.064
   19STY    C47  307   0.549   0.687  -0.110
   19STY    C48  308   0.638   0.718  -0.212
   19STY    C49  309   0.592   0.783  -0.327
   19STY    C50  310   0.458   0.816  -0.339
   19STY    C51  311   0.369   0.786  -0.236
   19STY    C52  312   0.414   0.721  -0.122
   19STY    H53  313   0.742   0.692  -0.203
   19STY    H54  314   0.661   0.806  -0.406
   19STY    H55  315   0.422   0.866  -0.428
   19STY    H56  316   0.265   0.812  -0.246
   19STY    H57  317   0.345   0.697  -0.042
   19STY    H58  318   0.515   0.601   0.083
   20STY    H59  319   0.646   0.792   0.128
   20STY    H60  320   0.770   0.745   0.008
   20STY    C61  321   0.684   0.575   0.290
   20STY    C62  322   0.573   0.645   0.334
   20STY    C63  323   0.484   0.586   0.423
   20STY    C64  324   0.506   0.456   0.467
   20STY    C65  325   0.617   0.385   0.422
   20STY    C66  326   0.706   0.444   0.333
   20STY    H67  327   0.556   0.746   0.300
   20STY    H68  328   0.398   0.641   0.458
   20STY    H69  329   0.436   0.409   0.536
   20STY    H70  330   0.634   0.284   0.456
   20STY    H71  331   0.792   0.390   0.299
   20STY    H72  332   0.843   0.563   0.147
   21STY    H73  333   0.927   0.674   0.346
   21STY    H74  334   0.808   0.806   0.324
   21STY    C75  335   1.041   0.712   0.095
   21STY    C76  336   1.023   0.721  -0.042
   21STY    C77  337   1.087   0.630  -0.127
   21STY    C78  338   1.167   0.530  -0.073
   21STY    C79  339   1.185   0.521   0.064
   21STY    C80  340   1.121   0.612   0.149
   21STY    H81  341   0.961   0.798  -0.084
   21STY    H82  342   1.073   0.637  -0.234
   21STY    H83  343   1.216   0.460  -0.139
   21STY    H84  344   1.247   0.443   0.106
   21STY    H85  345   1.135   0.605   0.255
   21STY    H86  346   0.917   0.884   0.127
   22STY    H87  347   1.142   0.940   0.197
   22STY    H88  348   1.140   0.809   0.319
   22STY    C89  349   0.926   1.074   0.301
   22STY    C90  350   0.965   1.141   0.186
   22STY    C91  351   0.876   1.226   0.122
   22STY    C92  352   0.748   1.244   0.174
   22STY    C93  353   0.709   1.177   0.289
   22STY    C94  354   0.799   1.092   0.353
   22STY    H95  355   1.064   1.126   0.146
   22STY    H96  356   0.905   1.278   0.032
   22STY    H97  357   0.678   1.310   0.124
   22STY    H98  358   0.610   1.192   0.329
   22STY    H99  359   0.769   1.040   0.443
   22STY     H1  360   0.971   0.923   0.447
   23STY     H2  361   1.193   1.111   0.363
   23STY     H3  362   1.190   1.001   0.504
   23STY     C4  363   0.976   1.119   0.625
   23STY     C5  364   0.849   1.173   0.640
   23STY     C6  365   0.760   1.118   0.731
   23STY     C7  366   0.798   1.008   0.807
   23STY     C8  367   0.925   0.953   0.792
   23STY     C9  368   1.014   1.009   0.701
   23STY    H10  369   0.820   1.259   0.581
   23STY    H11  370   0.662   1.160   0.743
   23STY    H12  371   0.729   0.965   0.878
   23STY    H13  372   0.955   0.868   0.852
   23STY    H14  373   1.113   0.967   0.690
   23STY    H15  374   1.021   1.249   0.461
   24STY    H16  375   1.226   1.189   0.676
   24STY    H17  376   1.130   1.338   0.658
   24STY    C18  377   1.228   1.427   0.433
   24STY    C19  378   1.190   1.401   0.302
   24STY    C20  379   1.133   1.501   0.224
   24STY    C21  380   1.115   1.628   0.278
   24STY    C22  381   1.153   1.655   0.409
   24STY    C23  382   1.210   1.554   0.486
   24STY    H24  383   1.204   1.302   0.260
   24STY    H25  384   1.104   1.481   0.122
   24STY    H26  385   1.071   1.707   0.217
   24STY    H27  386   1.139   1.753   0.450
   24STY    H28  387   1.239   1.574   0.588
   24STY    H29  388   1.328   1.239   0.452
   17STY    H30  389   0.523   0.006  -0.380
   24STY    H31  390   1.372   1.360   0.573
   25STY     C1  391   1.451  -0.283   1.413
   25STY     C2  392   1.561  -0.389   1.413
   26STY     C3  393   1.598  -0.440   1.274
   26STY     C4  394   1.639  -0.329   1.177
   27STY     C5  395   1.763  -0.250   1.221
   27STY     C6  396   1.811  -0.147   1.118
   28STY     C7  397   1.949  -0.089   1.148
   28STY     C8  398   1.992   0.022   1.053
   29STY     C9  399   2.123   0.092   1.093
   29STY    C10  400   2.164   0.205   0.999
   30STY    C11  401   2.289   0.281   1.044
   30STY    C12  402   2.350   0.370   0.936
   31STY    C13  403   2.462   0.461   0.987
   31STY    C14  404   2.415   0.573   1.080
   32STY    C15  405   2.529   0.650   1.148
   32STY    C16  406   2.599   0.571   1.259
   25STY    H17  407   1.486  -0.198   1.355
   25STY    H18  408   1.362  -0.326   1.367
   25STY    C19  409   1.512  -0.507   1.495
   25STY    C20  410   1.581  -0.545   1.609
   25STY    C21  411   1.537  -0.654   1.684
   25STY    C22  412   1.424  -0.724   1.644
   25STY    C23  413   1.355  -0.686   1.530
   25STY    C24  414   1.399  -0.577   1.455
   25STY    H25  415   1.669  -0.491   1.640
   25STY    H26  416   1.591  -0.683   1.773
   25STY    H27  417   1.389  -0.808   1.703
   25STY    H28  418   1.267  -0.740   1.499
   25STY    H29  419   1.346  -0.548   1.366
   25STY    H30  420   1.650  -0.347   1.459
   26STY    H31  421   1.512  -0.492   1.232
   26STY    H32  422   1.682  -0.509   1.284
   26STY    C33  423   1.669  -0.392   1.043
   26STY    C34  424   1.789  -0.460   1.023
   26STY    C35  425   1.817  -0.518   0.900
   26STY    C36  426   1.724  -0.508   0.796
   26STY    C37  427   1.605  -0.440   0.816
   26STY    C38  428   1.577  -0.382   0.939
   26STY    H39  429   1.861  -0.467   1.104
   26STY    H40  430   1.910  -0.571   0.885
   26STY    H41  431   1.746  -0.553   0.701
   26STY    H42  432   1.533  -0.433   0.735
   26STY    H43  433   1.484  -0.330   0.954
   26STY    H44  434   1.556  -0.259   1.167
   27STY    H45  435   1.844  -0.320   1.239
   27STY    H46  436   1.738  -0.197   1.313
   27STY    C47  437   1.712  -0.033   1.116
   27STY    C48  438   1.703   0.054   1.224
   27STY    C49  439   1.612   0.159   1.221
   27STY    C50  440   1.529   0.177   1.110
   27STY    C51  441   1.538   0.090   1.002
   27STY    C52  442   1.629  -0.015   1.005
   27STY    H53  443   1.767   0.040   1.309
   27STY    H54  444   1.605   0.227   1.305
   27STY    H55  445   1.459   0.258   1.108
   27STY    H56  446   1.474   0.104   0.917
   27STY    H57  447   1.636  -0.083   0.921
   27STY    H58  448   1.814  -0.195   1.021
   28STY    H59  449   2.022  -0.170   1.141
   28STY    H60  450   1.948  -0.049   1.250
   28STY    C61  451   2.011  -0.038   0.915
   28STY    C62  452   2.108  -0.135   0.894
   28STY    C63  453   2.125  -0.190   0.768
   28STY    C64  454   2.045  -0.148   0.662
   28STY    C65  455   1.948  -0.050   0.683
   28STY    C66  456   1.931   0.005   0.810
   28STY    H67  457   2.170  -0.168   0.976
   28STY    H68  458   2.200  -0.266   0.752
   28STY    H69  459   2.058  -0.190   0.564
   28STY    H70  460   1.886  -0.017   0.601
   28STY    H71  461   1.856   0.081   0.826
   28STY    H72  462   1.913   0.097   1.050
   29STY    H73  463   2.202   0.017   1.093
   29STY    H74  464   2.110   0.133   1.193
   29STY    C75  465   2.050   0.303   0.990
   29STY    C76  466   1.997   0.338   0.866
   29STY    C77  467   1.891   0.428   0.858
   29STY    C78  468   1.839   0.484   0.974
   29STY    C79  469   1.892   0.450   1.098
   29STY    C80  470   1.997   0.360   1.106
   29STY    H81  471   2.038   0.294   0.776
   29STY    H82  472   1.850   0.454   0.762
   29STY    H83  473   1.757   0.554   0.968
   29STY    H84  474   1.851   0.494   1.188
   29STY    H85  475   2.038   0.333   1.202
   29STY    H86  476   2.184   0.163   0.901
   30STY    H87  477   2.364   0.208   1.075
   30STY    H88  478   2.262   0.344   1.129
   30STY    C89  479   2.406   0.282   0.828
   30STY    C90  480   2.505   0.189   0.858
   30STY    C91  481   2.557   0.107   0.758
   30STY    C92  482   2.509   0.119   0.628
   30STY    C93  483   2.411   0.212   0.597
   30STY    C94  484   2.359   0.293   0.697
   30STY    H95  485   2.542   0.180   0.959
   30STY    H96  486   2.633   0.035   0.781
   30STY    H97  487   2.550   0.055   0.550
   30STY    H98  488   2.374   0.220   0.496
   30STY    H99  489   2.282   0.365   0.674
   30STY     H1  490   2.271   0.433   0.895
   31STY     H2  491   2.511   0.507   0.901
   31STY     H3  492   2.534   0.400   1.041
   31STY     C4  493   2.334   0.671   0.999
   31STY     C5  494   2.396   0.779   0.937
   31STY     C6  495   2.321   0.869   0.862
   31STY     C7  496   2.184   0.851   0.849
   31STY     C8  497   2.122   0.743   0.911
   31STY     C9  498   2.197   0.653   0.986
   31STY    H10  499   2.503   0.792   0.947
   31STY    H11  500   2.370   0.953   0.815
   31STY    H12  501   2.126   0.921   0.791
   31STY    H13  502   2.015   0.730   0.901
   31STY    H14  503   2.148   0.569   1.034
   31STY    H15  504   2.353   0.528   1.158
   32STY    H16  505   2.487   0.740   1.192
   32STY    H17  506   2.602   0.676   1.072
   32STY    C18  507   2.691   0.666   1.333
   32STY    C19  508   2.828   0.656   1.317
   32STY    C20  509   2.913   0.743   1.385
   32STY    C21  510   2.859   0.840   1.469
   32STY    C22  511   2.721   0.849   1.486
   32STY    C23  512   2.637   0.762   1.417
   32STY    H24  513   2.870   0.581   1.251
   32STY    H25  514   3.020   0.736   1.372
   32STY    H26  515   2.924   0.907   1.522
   32STY    H27  516   2.680   0.924   1.551
   32STY    H28  517   2.530   0.770   1.430
   32STY    H29  518   2.658   0.492   1.212
   25STY    H30  519   1.424  -0.247   1.513
   32STY    H31  520   2.532   0.525   1.331
   33STY     C1  521   2.199   2.767   2.213
   33STY     C2  522   2.222   2.618   2.236
   34STY     C3  523   2.341   2.560   2.159
   34STY     C4  524   2.375   2.416   2.196
   35STY     C5  525   2.424   2.398   2.340
   35STY     C6  526   2.482   2.259   2.369
   36STY     C7  527   2.522   2.238   2.515
   36STY     C8  528   2.572   2.097   2.546
   37STY     C9  529   2.684   2.049   2.454
   37STY    C10  530   2.718   1.900   2.469
   38STY    C11  531   2.610   1.806   2.416
   38STY    C12  532   2.636   1.658   2.446
   39STY    C13  533   2.536   1.563   2.381
   39STY    C14  534   2.549   1.418   2.428
   40STY    C15  535   2.468   1.318   2.344
   40STY    C16  536   2.471   1.175   2.399
   33STY    H17  537   2.289   2.821   2.244
   33STY    H18  538   2.182   2.783   2.106
   33STY    C19  539   2.098   2.544   2.193
   33STY    C20  540   2.037   2.454   2.280
   33STY    C21  541   1.923   2.385   2.240
   33STY    C22  542   1.869   2.407   2.114
   33STY    C23  543   1.930   2.497   2.027
   33STY    C24  544   2.044   2.565   2.067
   33STY    H25  545   2.079   2.437   2.378
   33STY    H26  546   1.876   2.315   2.308
   33STY    H27  547   1.780   2.354   2.083
   33STY    H28  548   1.888   2.514   1.929
   33STY    H29  549   2.091   2.635   1.999
   33STY    H30  550   2.240   2.602   2.343
   34STY    H31  551   2.429   2.622   2.181
   34STY    H32  552   2.318   2.564   2.053
   34STY    C33  553   2.484   2.368   2.103
   34STY    C34  554   2.614   2.414   2.119
   34STY    C35  555   2.714   2.369   2.033
   34STY    C36  556   2.684   2.279   1.932
   34STY    C37  557   2.554   2.233   1.916
   34STY    C38  558   2.454   2.277   2.002
   34STY    H39  559   2.638   2.484   2.198
   34STY    H40  560   2.816   2.405   2.046
   34STY    H41  561   2.762   2.245   1.866
   34STY    H42  562   2.531   2.163   1.838
   34STY    H43  563   2.353   2.242   1.990
   34STY    H44  564   2.285   2.355   2.182
   35STY    H45  565   2.339   2.414   2.407
   35STY    H46  566   2.501   2.472   2.360
   35STY    C47  567   2.378   2.156   2.333
   35STY    C48  568   2.250   2.165   2.384
   35STY    C49  569   2.154   2.070   2.351
   35STY    C50  570   2.187   1.965   2.266
   35STY    C51  571   2.316   1.956   2.214
   35STY    C52  572   2.412   2.051   2.248
   35STY    H53  573   2.224   2.247   2.450
   35STY    H54  574   2.054   2.077   2.391
   35STY    H55  575   2.113   1.891   2.240
   35STY    H56  576   2.342   1.874   2.148
   35STY    H57  577   2.512   2.044   2.208
   35STY    H58  578   2.571   2.246   2.307
   36STY    H59  579   2.434   2.258   2.578
   36STY    H60  580   2.601   2.309   2.540
   36STY    C61  581   2.623   2.095   2.688
   36STY    C62  582   2.560   2.017   2.784
   36STY    C63  583   2.607   2.016   2.915
   36STY    C64  584   2.718   2.092   2.950
   36STY    C65  585   2.782   2.169   2.853
   36STY    C66  586   2.734   2.171   2.723
   36STY    H67  587   2.473   1.958   2.758
   36STY    H68  588   2.558   1.955   2.990
   36STY    H69  589   2.755   2.090   3.051
   36STY    H70  590   2.868   2.228   2.880
   36STY    H71  591   2.784   2.231   2.648
   36STY    H72  592   2.488   2.028   2.537
   37STY    H73  593   2.773   2.107   2.476
   37STY    H74  594   2.653   2.066   2.351
   37STY    C75  595   2.846   1.873   2.395
   37STY    C76  596   2.953   1.814   2.460
   37STY    C77  597   3.071   1.789   2.391
   37STY    C78  598   3.082   1.823   2.257
   37STY    C79  599   2.975   1.883   2.191
   37STY    C80  600   2.857   1.908   2.260
   37STY    H81  601   2.945   1.787   2.564
   37STY    H82  602   3.155   1.743   2.441
   37STY    H83  603   3.174   1.804   2.203
   37STY    H84  604   2.983   1.910   2.087
   37STY    H85  605   2.773   1.954   2.210
   37STY    H86  606   2.732   1.880   2.576
   38STY    H87  607   2.605   1.818   2.308
   38STY    H88  608   2.515   1.834   2.461
   38STY    C89  609   2.629   1.639   2.596
   38STY    C90  610   2.745   1.619   2.669
   38STY    C91  611   2.739   1.601   2.807
   38STY    C92  612   2.616   1.603   2.871
   38STY    C93  613   2.499   1.623   2.798
   38STY    C94  614   2.506   1.641   2.661
   38STY    H95  615   2.841   1.617   2.619
   38STY    H96  616   2.830   1.585   2.863
   38STY    H97  617   2.611   1.589   2.978
   38STY    H98  618   2.404   1.625   2.848
   38STY    H99  619   2.415   1.657   2.604
   38STY     H1  620   2.736   1.633   2.410
   39STY     H2  621   2.552   1.565   2.273
   39STY     H3  622   2.435   1.598   2.404
   39STY     C4  623   2.694   1.378   2.422
   39STY     C5  624   2.757   1.326   2.535
   39STY     C6  625   2.891   1.290   2.529
   39STY     C7  626   2.962   1.306   2.411
   39STY     C8  627   2.900   1.358   2.298
   39STY     C9  628   2.766   1.394   2.304
   39STY    H10  629   2.701   1.314   2.626
   39STY    H11  630   2.940   1.250   2.617
   39STY    H12  631   3.066   1.278   2.407
   39STY    H13  632   2.955   1.370   2.206
   39STY    H14  633   2.717   1.435   2.216
   39STY    H15  634   2.513   1.412   2.531
   40STY    H16  635   2.510   1.317   2.243
   40STY    H17  636   2.365   1.351   2.341
   40STY    C18  637   2.403   1.174   2.533
   40STY    C19  638   2.472   1.129   2.646
   40STY    C20  639   2.409   1.129   2.770
   40STY    C21  640   2.278   1.173   2.782
   40STY    C22  641   2.209   1.218   2.670
   40STY    C23  642   2.272   1.219   2.545
   40STY    H24  643   2.574   1.095   2.636
   40STY    H25  644   2.463   1.094   2.857
   40STY    H26  645   2.229   1.173   2.878
   40STY    H27  646   2.107   1.253   2.679
   40STY    H28  647   2.219   1.254   2.458
   40STY    H29  648   2.575   1.144   2.409
   33STY    H30  649   2.114   2.808   2.268
   40STY    H31  650   2.421   1.102   2.335
   41STY     C1  651   1.699   1.936  -0.019
   41STY     C2  652   1.587   2.030  -0.063
   42STY     C3  653   1.530   2.117   0.049
   42STY     C4  654   1.405   2.196   0.010
   43STY     C5  655   1.351   2.285   0.122
   43STY     C6  656   1.244   2.384   0.076
   44STY     C7  657   1.196   2.480   0.185
   44STY     C8  658   1.078   2.568   0.143
   45STY     C9  659   1.027   2.660   0.254
   45STY    C10  660   0.898   2.735   0.219
   46STY    C11  661   0.788   2.646   0.161
   46STY    C12  662   0.652   2.715   0.150
   47STY    C13  663   0.546   2.631   0.078
   47STY    C14  664   0.406   2.693   0.080
   48STY    C15  665   0.356   2.730   0.220
   48STY    C16  666   0.217   2.793   0.222
   41STY    H17  667   1.780   1.996   0.021
   41STY    H18  668   1.660   1.870   0.058
   41STY    C19  669   1.474   1.946  -0.119
   41STY    C20  670   1.437   1.960  -0.253
   41STY    C21  671   1.334   1.883  -0.304
   41STY    C22  672   1.267   1.793  -0.222
   41STY    C23  673   1.303   1.779  -0.089
   41STY    C24  674   1.407   1.856  -0.037
   41STY    H25  675   1.489   2.030  -0.316
   41STY    H26  676   1.305   1.893  -0.408
   41STY    H27  677   1.186   1.733  -0.262
   41STY    H28  678   1.251   1.709  -0.025
   41STY    H29  679   1.435   1.846   0.066
   41STY    H30  680   1.626   2.096  -0.141
   42STY    H31  681   1.607   2.188   0.079
   42STY    H32  682   1.505   2.052   0.133
   42STY    C33  683   1.439   2.283  -0.108
   42STY    C34  684   1.541   2.376  -0.099
   42STY    C35  685   1.572   2.456  -0.208
   42STY    C36  686   1.500   2.443  -0.327
   42STY    C37  687   1.398   2.350  -0.336
   42STY    C38  688   1.367   2.270  -0.227
   42STY    H39  689   1.597   2.386  -0.007
   42STY    H40  690   1.652   2.529  -0.201
   42STY    H41  691   1.524   2.505  -0.412
   42STY    H42  692   1.342   2.340  -0.428
   42STY    H43  693   1.287   2.197  -0.234
   42STY    H44  694   1.327   2.124  -0.017
   43STY    H45  695   1.434   2.342   0.164
   43STY    H46  696   1.307   2.222   0.199
   43STY    C47  697   1.125   2.306   0.025
   43STY    C48  698   1.087   2.315  -0.108
   43STY    C49  699   0.978   2.242  -0.154
   43STY    C50  700   0.906   2.161  -0.067
   43STY    C51  701   0.944   2.153   0.067
   43STY    C52  702   1.053   2.225   0.113
   43STY    H53  703   1.143   2.378  -0.176
   43STY    H54  704   0.948   2.249  -0.258
   43STY    H55  705   0.821   2.105  -0.103
   43STY    H56  706   0.888   2.090   0.135
   43STY    H57  707   1.083   2.218   0.216
   43STY    H58  708   1.286   2.444  -0.006
   44STY    H59  709   1.279   2.544   0.213
   44STY    H60  710   1.165   2.420   0.271
   44STY    C61  711   1.122   2.654   0.028
   44STY    C62  712   1.228   2.743   0.044
   44STY    C63  713   1.269   2.823  -0.063
   44STY    C64  714   1.204   2.813  -0.186
   44STY    C65  715   1.098   2.724  -0.202
   44STY    C66  716   1.058   2.644  -0.095
   44STY    H67  717   1.278   2.751   0.139
   44STY    H68  718   1.350   2.892  -0.051
   44STY    H69  719   1.236   2.874  -0.269
   44STY    H70  720   1.048   2.716  -0.297
   44STY    H71  721   0.976   2.575  -0.108
   44STY    H72  722   0.996   2.503   0.112
   45STY    H73  723   1.104   2.733   0.277
   45STY    H74  724   1.007   2.599   0.343
   45STY    C75  725   0.845   2.801   0.344
   45STY    C76  726   0.826   2.938   0.348
   45STY    C77  727   0.777   2.999   0.463
   45STY    C78  728   0.748   2.921   0.575
   45STY    C79  729   0.767   2.784   0.571
   45STY    C80  730   0.816   2.723   0.456
   45STY    H81  731   0.849   2.998   0.261
   45STY    H82  732   0.763   3.105   0.466
   45STY    H83  733   0.710   2.968   0.664
   45STY    H84  734   0.744   2.723   0.658
   45STY    H85  735   0.830   2.616   0.453
   45STY    H86  736   0.923   2.811   0.145
   46STY    H87  737   0.777   2.559   0.226
   46STY    H88  738   0.818   2.614   0.061
   46STY    C89  739   0.670   2.844   0.075
   46STY    C90  740   0.743   2.846  -0.043
   46STY    C91  741   0.760   2.965  -0.113
   46STY    C92  742   0.703   3.082  -0.064
   46STY    C93  743   0.630   3.081   0.054
   46STY    C94  744   0.613   2.961   0.123
   46STY    H95  745   0.787   2.755  -0.081
   46STY    H96  746   0.817   2.967  -0.205
   46STY    H97  747   0.716   3.175  -0.118
   46STY    H98  748   0.586   3.172   0.091
   46STY    H99  749   0.556   2.960   0.215
   46STY     H1  750   0.616   2.735   0.251
   47STY     H2  751   0.540   2.534   0.126
   47STY     H3  752   0.576   2.620  -0.026
   47STY     C4  753   0.309   2.594   0.020
   47STY     C5  754   0.233   2.629  -0.091
   47STY     C6  755   0.144   2.537  -0.146
   47STY     C7  756   0.131   2.411  -0.090
   47STY     C8  757   0.207   2.376   0.022
   47STY     C9  758   0.296   2.467   0.077
   47STY    H10  759   0.243   2.727  -0.134
   47STY    H11  760   0.085   2.565  -0.232
   47STY    H12  761   0.062   2.340  -0.132
   47STY    H13  762   0.196   2.278   0.065
   47STY    H14  763   0.355   2.440   0.163
   47STY    H15  764   0.407   2.784   0.020
   48STY    H16  765   0.426   2.801   0.264
   48STY    H17  766   0.354   2.639   0.281
   48STY    C18  767   0.216   2.909   0.126
   48STY    C19  768   0.295   3.020   0.150
   48STY    C20  769   0.294   3.127   0.062
   48STY    C21  770   0.214   3.123  -0.052
   48STY    C22  771   0.134   3.012  -0.076
   48STY    C23  772   0.135   2.905   0.013
   48STY    H24  773   0.358   3.024   0.238
   48STY    H25  774   0.356   3.214   0.081
   48STY    H26  775   0.213   3.206  -0.121
   48STY    H27  776   0.072   3.008  -0.164
   48STY    H28  777   0.074   2.818  -0.006
   48STY    H29  778   0.145   2.718   0.190
   41STY    H30  779   1.739   1.874  -0.099
   48STY    H31  780   0.186   2.830   0.320
   49STY     C1  781   3.133   2.928   1.394
   49STY     C2  782   3.062   2.816   1.317
   50STY     C3  783   3.111   2.800   1.173
   50STY     C4  784   3.047   2.682   1.098
   51STY     C5  785   3.097   2.665   0.954
   51STY     C6  786   3.040   2.542   0.883
   52STY     C7  787   3.095   2.521   0.742
   52STY     C8  788   3.040   2.397   0.672
   53STY     C9  789   3.112   2.362   0.541
   53STY    C10  790   3.081   2.222   0.488
   54STY    C11  791   3.141   2.109   0.572
   54STY    C12  792   3.126   1.970   0.509
   55STY    C13  793   2.983   1.938   0.463
   55STY    C14  794   2.969   1.801   0.396
   56STY    C15  795   2.833   1.778   0.330
   56STY    C16  796   2.714   1.797   0.424
   49STY    H17  797   3.239   2.906   1.396
   49STY    H18  798   3.116   3.022   1.341
   49STY    C19  799   3.086   2.686   1.390
   49STY    C20  800   3.214   2.633   1.398
   49STY    C21  801   3.236   2.514   1.465
   49STY    C22  802   3.129   2.447   1.525
   49STY    C23  803   3.001   2.500   1.517
   49STY    C24  804   2.979   2.620   1.449
   49STY    H25  805   3.297   2.685   1.352
   49STY    H26  806   3.335   2.472   1.472
   49STY    H27  807   3.146   2.354   1.577
   49STY    H28  808   2.918   2.448   1.563
   49STY    H29  809   2.880   2.661   1.443
   49STY    H30  810   2.956   2.838   1.314
   50STY    H31  811   3.219   2.784   1.175
   50STY    H32  812   3.089   2.891   1.118
   50STY    C33  813   2.898   2.705   1.094
   50STY    C34  814   2.812   2.615   1.157
   50STY    C35  815   2.675   2.636   1.153
   50STY    C36  816   2.623   2.747   1.087
   50STY    C37  817   2.709   2.837   1.024
   50STY    C38  818   2.846   2.816   1.028
   50STY    H39  819   2.852   2.529   1.208
   50STY    H40  820   2.608   2.566   1.201
   50STY    H41  821   2.516   2.763   1.084
   50STY    H42  822   2.669   2.923   0.973
   50STY    H43  823   2.913   2.886   0.980
   50STY    H44  824   3.069   2.591   1.153
   51STY    H45  825   3.205   2.656   0.957
   51STY    H46  826   3.068   2.754   0.898
   51STY    C47  827   3.073   2.420   0.966
   51STY    C48  828   3.204   2.395   1.002
   51STY    C49  829   3.235   2.282   1.078
   51STY    C50  830   3.134   2.196   1.118
   51STY    C51  831   3.002   2.221   1.081
   51STY    C52  832   2.972   2.334   1.005
   51STY    H53  833   3.283   2.462   0.971
   51STY    H54  834   3.337   2.262   1.106
   51STY    H55  835   3.157   2.108   1.177
   51STY    H56  836   2.923   2.154   1.112
   51STY    H57  837   2.869   2.354   0.977
   51STY    H58  838   2.932   2.554   0.876
   52STY    H59  839   3.203   2.512   0.749
   52STY    H60  840   3.070   2.609   0.682
   52STY    C61  841   2.894   2.421   0.640
   52STY    C62  842   2.796   2.347   0.705
   52STY    C63  843   2.662   2.369   0.676
   52STY    C64  844   2.626   2.465   0.582
   52STY    C65  845   2.724   2.539   0.517
   52STY    C66  846   2.859   2.517   0.546
   52STY    H67  847   2.824   2.273   0.779
   52STY    H68  848   2.586   2.312   0.727
   52STY    H69  849   2.522   2.482   0.560
   52STY    H70  850   2.697   2.613   0.444
   52STY    H71  851   2.935   2.574   0.496
   52STY    H72  852   3.050   2.312   0.740
   53STY    H73  853   3.220   2.369   0.559
   53STY    H74  854   3.083   2.435   0.466
   53STY    C75  855   3.136   2.212   0.348
   53STY    C76  856   3.272   2.195   0.328
   53STY    C77  857   3.322   2.185   0.198
   53STY    C78  858   3.236   2.192   0.090
   53STY    C79  859   3.100   2.208   0.110
   53STY    C80  860   3.049   2.218   0.239
   53STY    H81  861   3.339   2.190   0.412
   53STY    H82  862   3.428   2.172   0.183
   53STY    H83  863   3.275   2.184  -0.011
   53STY    H84  864   3.033   2.214   0.025
   53STY    H85  865   2.943   2.231   0.255
   53STY    H86  866   2.973   2.210   0.487
   54STY    H87  867   3.091   2.108   0.669
   54STY    H88  868   3.247   2.129   0.585
   54STY    C89  869   3.168   1.867   0.611
   54STY    C90  870   3.265   1.773   0.579
   54STY    C91  871   3.303   1.678   0.673
   54STY    C92  872   3.244   1.677   0.799
   54STY    C93  873   3.147   1.771   0.831
   54STY    C94  874   3.109   1.866   0.737
   54STY    H95  875   3.311   1.774   0.481
   54STY    H96  876   3.379   1.606   0.648
   54STY    H97  877   3.274   1.604   0.872
   54STY    H98  878   3.101   1.770   0.929
   54STY    H99  879   3.033   1.939   0.762
   54STY     H1  880   3.191   1.965   0.422
   55STY     H2  881   2.952   2.014   0.392
   55STY     H3  882   2.918   1.940   0.551
   55STY     C4  883   3.076   1.789   0.291
   55STY     C5  884   3.160   1.678   0.289
   55STY     C6  885   3.259   1.667   0.192
   55STY     C7  886   3.273   1.766   0.096
   55STY     C8  887   3.189   1.877   0.097
   55STY     C9  888   3.091   1.888   0.195
   55STY    H10  889   3.149   1.601   0.364
   55STY    H11  890   3.324   1.581   0.191
   55STY    H12  891   3.350   1.758   0.020
   55STY    H13  892   3.200   1.954   0.023
   55STY    H14  893   3.025   1.974   0.196
   55STY    H15  894   2.983   1.724   0.472
   56STY    H16  895   2.831   1.676   0.292
   56STY    H17  896   2.823   1.849   0.247
   56STY    C18  897   2.587   1.788   0.342
   56STY    C19  898   2.514   1.670   0.342
   56STY    C20  899   2.397   1.661   0.267
   56STY    C21  900   2.354   1.770   0.192
   56STY    C22  901   2.428   1.888   0.192
   56STY    C23  902   2.544   1.897   0.267
   56STY    H24  903   2.547   1.585   0.400
   56STY    H25  904   2.340   1.569   0.267
   56STY    H26  905   2.264   1.763   0.133
   56STY    H27  906   2.395   1.972   0.134
   56STY    H28  907   2.602   1.988   0.268
   56STY    H29  908   2.721   1.897   0.469
   49STY    H30  909   3.098   2.940   1.496
   56STY    H31  910   2.709   1.724   0.504
   57STY     C1  911   2.748   3.028   2.282
   57STY     C2  912   2.774   3.160   2.355
   58STY     C3  913   2.905   3.228   2.315
   58STY     C4  914   2.902   3.293   2.177
   59STY     C5  915   3.038   3.344   2.129
   59STY     C6  916   3.146   3.235   2.124
   60STY     C7  917   3.113   3.119   2.030
   60STY     C8  918   3.229   3.021   2.010
   61STY     C9  919   3.288   2.967   2.140
   61STY    C10  920   3.399   2.863   2.120
   62STY    C11  921   3.477   2.830   2.247
   62STY    C12  922   3.388   2.793   2.366
   63STY    C13  923   3.466   2.762   2.494
   63STY    C14  924   3.563   2.872   2.536
   64STY    C15  925   3.653   2.835   2.655
   64STY    C16  926   3.740   2.950   2.705
   57STY    H17  927   2.744   3.049   2.175
   57STY    H18  928   2.830   2.960   2.304
   57STY    C19  929   2.778   3.131   2.503
   57STY    C20  930   2.664   3.150   2.581
   57STY    C21  931   2.668   3.124   2.717
   57STY    C22  932   2.786   3.079   2.776
   57STY    C23  933   2.899   3.060   2.698
   57STY    C24  934   2.896   3.086   2.562
   57STY    H25  935   2.573   3.185   2.535
   57STY    H26  936   2.580   3.138   2.778
   57STY    H27  937   2.789   3.058   2.882
   57STY    H28  938   2.991   3.025   2.744
   57STY    H29  939   2.984   3.072   2.502
   57STY    H30  940   2.692   3.228   2.333
   58STY    H31  941   2.984   3.153   2.316
   58STY    H32  942   2.927   3.305   2.389
   58STY    C33  943   2.807   3.411   2.183
   58STY    C34  944   2.699   3.417   2.096
   58STY    C35  945   2.612   3.526   2.101
   58STY    C36  946   2.633   3.628   2.193
   58STY    C37  947   2.742   3.622   2.280
   58STY    C38  948   2.829   3.513   2.275
   58STY    H39  949   2.682   3.338   2.024
   58STY    H40  950   2.528   3.531   2.033
   58STY    H41  951   2.566   3.712   2.197
   58STY    H42  952   2.758   3.701   2.351
   58STY    H43  953   2.913   3.508   2.342
   58STY    H44  954   2.865   3.220   2.106
   59STY    H45  955   3.071   3.422   2.197
   59STY    H46  956   3.026   3.384   2.029
   59STY    C47  957   3.275   3.299   2.078
   59STY    C48  958   3.292   3.331   1.944
   59STY    C49  959   3.411   3.390   1.901
   59STY    C50  960   3.512   3.416   1.993
   59STY    C51  961   3.495   3.384   2.127
   59STY    C52  962   3.376   3.325   2.169
   59STY    H53  963   3.213   3.311   1.873
   59STY    H54  964   3.424   3.415   1.797
   59STY    H55  965   3.604   3.462   1.959
   59STY    H56  966   3.573   3.404   2.198
   59STY    H57  967   3.363   3.300   2.273
   59STY    H58  968   3.159   3.195   2.225
   60STY    H59  969   3.086   3.161   1.933
   60STY    H60  970   3.029   3.064   2.071
   60STY    C61  971   3.178   2.904   1.929
   60STY    C62  972   3.225   2.882   1.800
   60STY    C63  973   3.178   2.774   1.726
   60STY    C64  974   3.084   2.688   1.781
   60STY    C65  975   3.036   2.710   1.910
   60STY    C66  976   3.083   2.818   1.984
   60STY    H67  977   3.299   2.949   1.758
   60STY    H68  978   3.215   2.757   1.626
   60STY    H69  979   3.047   2.604   1.724
   60STY    H70  980   2.963   2.643   1.953
   60STY    H71  981   3.046   2.835   2.084
   60STY    H72  982   3.308   3.072   1.954
   61STY    H73  983   3.208   2.922   2.198
   61STY    H74  984   3.331   3.051   2.195
   61STY    C75  985   3.496   2.916   2.017
   61STY    C76  986   3.518   2.846   1.899
   61STY    C77  987   3.607   2.895   1.805
   61STY    C78  988   3.675   3.014   1.828
   61STY    C79  989   3.653   3.085   1.946
   61STY    C80  990   3.563   3.036   2.041
   61STY    H81  991   3.466   2.753   1.881
   61STY    H82  992   3.625   2.840   1.714
   61STY    H83  993   3.744   3.052   1.755
   61STY    H84  994   3.705   3.177   1.964
   61STY    H85  995   3.546   3.090   2.132
   61STY    H86  996   3.352   2.772   2.083
   62STY    H87  997   3.536   2.917   2.274
   62STY    H88  998   3.542   2.745   2.226
   62STY    C89  999   3.307   2.671   2.330
   62STY    C90 1000   3.168   2.677   2.331
   62STY    C91 1001   3.094   2.565   2.297
   62STY    C92 1002   3.158   2.447   2.262
   62STY    C93 1003   3.297   2.441   2.261
   62STY    C94 1004   3.371   2.553   2.294
   62STY    H95 1005   3.118   2.769   2.358
   62STY    H96 1006   2.986   2.569   2.298
   62STY    H97 1007   3.100   2.359   2.235
   62STY    H98 1008   3.347   2.349   2.233
   62STY    H99 1009   3.479   2.548   2.293
   62STY     H1 1010   3.322   2.877   2.387
   63STY     H2 1011   3.523   2.671   2.478
   63STY     H3 1012   3.395   2.747   2.575
   63STY     C4 1013   3.483   2.994   2.575
   63STY     C5 1014   3.489   3.109   2.496
   63STY     C6 1015   3.414   3.221   2.532
   63STY     C7 1016   3.334   3.218   2.645
   63STY     C8 1017   3.328   3.104   2.723
   63STY     C9 1018   3.403   2.992   2.688
   63STY    H10 1019   3.551   3.111   2.408
   63STY    H11 1020   3.419   3.310   2.471
   63STY    H12 1021   3.276   3.306   2.672
   63STY    H13 1022   3.266   3.102   2.812
   63STY    H14 1023   3.398   2.903   2.749
   63STY    H15 1024   3.627   2.896   2.451
   64STY    H16 1025   3.718   2.753   2.624
   64STY    H17 1026   3.589   2.802   2.737
   64STY    C18 1027   3.841   2.983   2.598
   64STY    C19 1028   3.847   3.112   2.545
   64STY    C20 1029   3.940   3.142   2.446
   64STY    C21 1030   4.026   3.044   2.400
   64STY    C22 1031   4.020   2.915   2.452
   64STY    C23 1032   3.928   2.885   2.551
   64STY    H24 1033   3.779   3.188   2.582
   64STY    H25 1034   3.944   3.242   2.406
   64STY    H26 1035   4.098   3.068   2.323
   64STY    H27 1036   4.088   2.839   2.416
   64STY    H28 1037   3.923   2.785   2.592
   64STY    H29 1038   3.677   3.036   2.724
   57STY    H30 1039   2.654   2.979   2.310
   64STY    H31 1040   3.795   2.927   2.797
   65STY     C1 1041   1.162   1.796   2.573
   65STY     C2 1042   1.011   1.772   2.578
   66STY     C3 1043   0.962   1.663   2.482
   66STY     C4 1044   0.818   1.619   2.507
   67STY     C5 1045   0.758   1.537   2.393
   67STY     C6 1046   0.619   1.480   2.424
   68STY     C7 1047   0.555   1.406   2.306
   68STY     C8 1048   0.557   1.485   2.175
   69STY     C9 1049   0.507   1.630   2.188
   69STY    C10 1050   0.497   1.704   2.055
   70STY    C11 1051   0.631   1.724   1.984
   70STY    C12 1052   0.622   1.805   1.855
   71STY    C13 1053   0.752   1.809   1.774
   71STY    C14 1054   0.875   1.850   1.855
   72STY    C15 1055   0.995   1.889   1.770
   72STY    C16 1056   1.126   1.902   1.849
   65STY    H17 1057   1.212   1.703   2.599
   65STY    H18 1058   1.189   1.825   2.472
   65STY    C19 1059   0.974   1.732   2.719
   65STY    C20 1060   0.983   1.599   2.757
   65STY    C21 1061   0.949   1.562   2.887
   65STY    C22 1062   0.905   1.658   2.978
   65STY    C23 1063   0.897   1.791   2.939
   65STY    C24 1064   0.931   1.828   2.809
   65STY    H25 1065   1.016   1.524   2.687
   65STY    H26 1066   0.956   1.458   2.917
   65STY    H27 1067   0.879   1.629   3.078
   65STY    H28 1068   0.863   1.866   3.009
   65STY    H29 1069   0.924   1.932   2.779
   65STY    H30 1070   0.961   1.866   2.552
   66STY    H31 1071   1.027   1.576   2.494
   66STY    H32 1072   0.969   1.702   2.380
   66STY    C33 1073   0.733   1.742   2.527
   66STY    C34 1074   0.648   1.751   2.636
   66STY    C35 1075   0.570   1.864   2.654
   66STY    C36 1076   0.577   1.969   2.563
   66STY    C37 1077   0.663   1.961   2.454
   66STY    C38 1078   0.741   1.847   2.436
   66STY    H39 1079   0.641   1.669   2.706
   66STY    H40 1080   0.503   1.871   2.739
   66STY    H41 1081   0.517   2.058   2.578
   66STY    H42 1082   0.669   2.042   2.384
   66STY    H43 1083   0.808   1.841   2.352
   66STY    H44 1084   0.816   1.558   2.597
   67STY    H45 1085   0.825   1.454   2.371
   67STY    H46 1086   0.749   1.602   2.305
   67STY    C47 1087   0.633   1.382   2.538
   67STY    C48 1088   0.555   1.397   2.652
   67STY    C49 1089   0.568   1.307   2.757
   67STY    C50 1090   0.659   1.202   2.749
   67STY    C51 1091   0.737   1.187   2.635
   67STY    C52 1092   0.724   1.277   2.529
   67STY    H53 1093   0.485   1.478   2.659
   67STY    H54 1094   0.507   1.318   2.846
   67STY    H55 1095   0.669   1.132   2.830
   67STY    H56 1096   0.808   1.106   2.628
   67STY    H57 1097   0.785   1.266   2.441
   67STY    H58 1098   0.554   1.562   2.453
   68STY    H59 1099   0.451   1.386   2.332
   68STY    H60 1100   0.608   1.313   2.290
   68STY    C61 1101   0.468   1.414   2.075
   68STY    C62 1102   0.525   1.333   1.978
   68STY    C63 1103   0.444   1.268   1.886
   68STY    C64 1104   0.306   1.283   1.892
   68STY    C65 1105   0.249   1.364   1.990
   68STY    C66 1106   0.330   1.429   2.081
   68STY    H67 1107   0.632   1.322   1.973
   68STY    H68 1108   0.488   1.205   1.810
   68STY    H69 1109   0.243   1.232   1.821
   68STY    H70 1110   0.142   1.376   1.995
   68STY    H71 1111   0.286   1.492   2.158
   68STY    H72 1112   0.659   1.488   2.138
   69STY    H73 1113   0.577   1.684   2.253
   69STY    H74 1114   0.409   1.628   2.234
   69STY    C75 1115   0.438   1.841   2.082
   69STY    C76 1116   0.515   1.940   2.141
   69STY    C77 1117   0.461   2.065   2.165
   69STY    C78 1118   0.329   2.091   2.131
   69STY    C79 1119   0.251   1.992   2.073
   69STY    C80 1120   0.306   1.867   2.048
   69STY    H81 1121   0.618   1.920   2.167
   69STY    H82 1122   0.521   2.142   2.211
   69STY    H83 1123   0.286   2.189   2.151
   69STY    H84 1124   0.148   2.013   2.046
   69STY    H85 1125   0.245   1.790   2.003
   69STY    H86 1126   0.431   1.648   1.989
   70STY    H87 1127   0.671   1.625   1.959
   70STY    H88 1128   0.699   1.775   2.052
   70STY    C89 1129   0.514   1.745   1.769
   70STY    C90 1130   0.512   1.608   1.744
   70STY    C91 1131   0.413   1.553   1.664
   70STY    C92 1132   0.315   1.634   1.609
   70STY    C93 1133   0.316   1.771   1.634
   70STY    C94 1134   0.415   1.826   1.713
   70STY    H95 1135   0.589   1.545   1.787
   70STY    H96 1136   0.412   1.446   1.645
   70STY    H97 1137   0.237   1.591   1.547
   70STY    H98 1138   0.239   1.834   1.591
   70STY    H99 1139   0.416   1.933   1.732
   70STY     H1 1140   0.595   1.908   1.881
   71STY     H2 1141   0.739   1.880   1.692
   71STY     H3 1142   0.769   1.709   1.734
   71STY     C4 1143   0.837   1.969   1.940
   71STY     C5 1144   0.853   1.964   2.078
   71STY     C6 1145   0.818   2.074   2.156
   71STY     C7 1146   0.768   2.189   2.096
   71STY     C8 1147   0.752   2.194   1.958
   71STY     C9 1148   0.786   2.084   1.880
   71STY    H10 1149   0.892   1.875   2.125
   71STY    H11 1150   0.831   2.070   2.263
   71STY    H12 1151   0.741   2.274   2.157
   71STY    H13 1152   0.713   2.283   1.912
   71STY    H14 1153   0.774   2.088   1.773
   71STY    H15 1154   0.903   1.767   1.919
   72STY    H16 1155   0.975   1.984   1.722
   72STY    H17 1156   1.009   1.812   1.694
   72STY    C18 1157   1.227   1.972   1.761
   72STY    C19 1158   1.293   2.085   1.808
   72STY    C20 1159   1.386   2.150   1.727
   72STY    C21 1160   1.414   2.101   1.600
   72STY    C22 1161   1.348   1.987   1.554
   72STY    C23 1162   1.255   1.923   1.634
   72STY    H24 1163   1.271   2.123   1.907
   72STY    H25 1164   1.437   2.238   1.764
   72STY    H26 1165   1.486   2.151   1.538
   72STY    H27 1166   1.370   1.949   1.455
   72STY    H28 1167   1.204   1.835   1.598
   72STY    H29 1168   1.106   1.962   1.937
   65STY    H30 1169   1.197   1.874   2.641
   72STY    H31 1170   1.168   1.807   1.881
   73STY     C1 1171   1.786   1.348   1.724
   73STY     C2 1172   1.799   1.501   1.727
   74STY     C3 1173   1.943   1.551   1.724
   74STY     C4 1174   2.021   1.525   1.853
   75STY     C5 1175   2.161   1.587   1.855
   75STY     C6 1176   2.248   1.549   1.735
   76STY     C7 1177   2.389   1.607   1.739
   76STY     C8 1178   2.395   1.757   1.711
   77STY     C9 1179   2.365   1.794   1.565
   77STY    C10 1180   2.341   1.944   1.543
   78STY    C11 1181   2.319   1.982   1.396
   78STY    C12 1182   2.277   2.127   1.376
   79STY    C13 1183   2.365   2.229   1.449
   79STY    C14 1184   2.339   2.374   1.410
   80STY    C15 1185   2.428   2.475   1.482
   80STY    C16 1186   2.418   2.618   1.427
   73STY    H17 1187   1.833   1.312   1.632
   73STY    H18 1188   1.838   1.308   1.810
   73STY    C19 1189   1.726   1.557   1.607
   73STY    C20 1190   1.787   1.555   1.482
   73STY    C21 1191   1.721   1.606   1.371
   73STY    C22 1192   1.593   1.659   1.385
   73STY    C23 1193   1.532   1.661   1.510
   73STY    C24 1194   1.599   1.610   1.621
   73STY    H25 1195   1.886   1.513   1.471
   73STY    H26 1196   1.768   1.605   1.274
   73STY    H27 1197   1.541   1.699   1.299
   73STY    H28 1198   1.433   1.703   1.521
   73STY    H29 1199   1.551   1.611   1.718
   73STY    H30 1200   1.752   1.537   1.818
   74STY    H31 1201   1.941   1.659   1.706
   74STY    H32 1202   1.995   1.502   1.642
   74STY    C33 1203   1.942   1.583   1.968
   74STY    C34 1204   1.931   1.721   1.983
   74STY    C35 1205   1.859   1.774   2.089
   74STY    C36 1206   1.797   1.689   2.180
   74STY    C37 1207   1.807   1.551   2.165
   74STY    C38 1208   1.880   1.498   2.059
   74STY    H39 1209   1.979   1.787   1.912
   74STY    H40 1210   1.850   1.881   2.101
   74STY    H41 1211   1.740   1.730   2.263
   74STY    H42 1212   1.759   1.485   2.236
   74STY    H43 1213   1.888   1.391   2.048
   74STY    H44 1214   2.031   1.418   1.865
   75STY    H45 1215   2.211   1.555   1.946
   75STY    H46 1216   2.150   1.696   1.856
   75STY    C47 1217   2.259   1.398   1.731
   75STY    C48 1218   2.227   1.329   1.615
   75STY    C49 1219   2.237   1.190   1.611
   75STY    C50 1220   2.279   1.121   1.724
   75STY    C51 1221   2.310   1.190   1.841
   75STY    C52 1222   2.300   1.329   1.844
   75STY    H53 1223   2.195   1.383   1.527
   75STY    H54 1224   2.213   1.137   1.521
   75STY    H55 1225   2.287   1.013   1.722
   75STY    H56 1226   2.342   1.136   1.929
   75STY    H57 1227   2.324   1.382   1.935
   75STY    H58 1228   2.199   1.584   1.644
   76STY    H59 1229   2.449   1.555   1.665
   76STY    H60 1230   2.430   1.589   1.839
   76STY    C61 1231   2.534   1.806   1.744
   76STY    C62 1232   2.642   1.765   1.666
   76STY    C63 1233   2.770   1.810   1.696
   76STY    C64 1234   2.790   1.895   1.804
   76STY    C65 1235   2.682   1.936   1.882
   76STY    C66 1236   2.554   1.891   1.852
   76STY    H67 1237   2.627   1.699   1.582
   76STY    H68 1238   2.854   1.779   1.636
   76STY    H69 1239   2.890   1.930   1.828
   76STY    H70 1240   2.698   2.002   1.966
   76STY    H71 1241   2.471   1.922   1.912
   76STY    H72 1242   2.322   1.807   1.775
   77STY    H73 1243   2.275   1.741   1.535
   77STY    H74 1244   2.449   1.763   1.504
   77STY    C75 1245   2.219   1.985   1.622
   77STY    C76 1246   2.092   1.958   1.572
   77STY    C77 1247   1.980   1.996   1.645
   77STY    C78 1248   1.995   2.061   1.767
   77STY    C79 1249   2.122   2.089   1.816
   77STY    C80 1250   2.234   2.050   1.743
   77STY    H81 1251   2.081   1.907   1.478
   77STY    H82 1252   1.881   1.975   1.607
   77STY    H83 1253   1.908   2.091   1.823
   77STY    H84 1254   2.133   2.139   1.910
   77STY    H85 1255   2.333   2.072   1.782
   77STY    H86 1256   2.429   1.998   1.579
   78STY    H87 1257   2.241   1.918   1.356
   78STY    H88 1258   2.412   1.965   1.342
   78STY    C89 1259   2.283   2.158   1.228
   78STY    C90 1260   2.407   2.171   1.165
   78STY    C91 1261   2.413   2.199   1.029
   78STY    C92 1262   2.295   2.214   0.956
   78STY    C93 1263   2.172   2.201   1.019
   78STY    C94 1264   2.166   2.173   1.155
   78STY    H95 1265   2.498   2.160   1.222
   78STY    H96 1266   2.508   2.210   0.980
   78STY    H97 1267   2.300   2.236   0.850
   78STY    H98 1268   2.081   2.212   0.962
   78STY    H99 1269   2.070   2.162   1.204
   78STY     H1 1270   2.175   2.139   1.411
   79STY     H2 1271   2.469   2.205   1.428
   79STY     H3 1272   2.346   2.219   1.556
   79STY     C4 1273   2.195   2.407   1.441
   79STY     C5 1274   2.110   2.449   1.340
   79STY     C6 1275   1.977   2.479   1.370
   79STY     C7 1276   1.930   2.467   1.500
   79STY     C8 1277   2.016   2.425   1.601
   79STY     C9 1278   2.148   2.395   1.572
   79STY    H10 1279   2.146   2.458   1.239
   79STY    H11 1280   1.911   2.512   1.291
   79STY    H12 1281   1.827   2.491   1.523
   79STY    H13 1282   1.980   2.416   1.702
   79STY    H14 1283   2.215   2.362   1.650
   79STY    H15 1284   2.356   2.384   1.302
   80STY    H16 1285   2.532   2.442   1.472
   80STY    H17 1286   2.400   2.477   1.587
   80STY    C18 1287   2.497   2.709   1.518
   80STY    C19 1288   2.635   2.700   1.522
   80STY    C20 1289   2.708   2.784   1.606
   80STY    C21 1290   2.641   2.877   1.685
   80STY    C22 1291   2.503   2.886   1.680
   80STY    C23 1292   2.430   2.802   1.597
   80STY    H24 1293   2.687   2.628   1.461
   80STY    H25 1294   2.815   2.777   1.610
   80STY    H26 1295   2.697   2.943   1.750
   80STY    H27 1296   2.451   2.959   1.742
   80STY    H28 1297   2.323   2.809   1.593
   80STY    H29 1298   2.313   2.647   1.427
   73STY    H30 1299   1.683   1.312   1.726
   80STY    H31 1300   2.457   2.629   1.325
   3.30000   3.30000   3.30000
